Title: Test vector-fitted S-Parameter file derived subcircuit
Date: Tue Jun  8 02:01:11  2021
Plotname: AC Analysis
Flags: complex
No. Variables: 73
No. Points: 11      
Variables:
	0	frequency	frequency
	1	v(1)	voltage
	2	v(x1.a1)	voltage
	3	v(x1.nt1)	voltage
	4	v(x1.nts1)	voltage
	5	v(x1.nt11)	voltage
	6	v(x1.nt11_inv)	voltage
	7	v(x1.x1.1)	voltage
	8	v(x1.x2.1)	voltage
	9	v(x1.x2.2)	voltage
	10	v(x1.x3.1)	voltage
	11	v(x1.x3.2)	voltage
	12	v(x1.x4.1)	voltage
	13	v(x1.nt2)	voltage
	14	v(x1.nt12)	voltage
	15	v(x1.nt12_inv)	voltage
	16	v(x1.x5.1)	voltage
	17	v(x1.x6.1)	voltage
	18	v(x1.x6.2)	voltage
	19	v(x1.x7.1)	voltage
	20	v(x1.x7.2)	voltage
	21	v(x1.x8.1)	voltage
	22	v(x1.a2)	voltage
	23	v(2)	voltage
	24	v(x1.nts2)	voltage
	25	v(x1.nt21)	voltage
	26	v(x1.nt21_inv)	voltage
	27	v(x1.x9.1)	voltage
	28	v(x1.x10.1)	voltage
	29	v(x1.x10.2)	voltage
	30	v(x1.x11.1)	voltage
	31	v(x1.x11.2)	voltage
	32	v(x1.x12.1)	voltage
	33	v(x1.nt22)	voltage
	34	v(x1.nt22_inv)	voltage
	35	v(x1.x13.1)	voltage
	36	v(x1.x14.1)	voltage
	37	v(x1.x14.2)	voltage
	38	v(x1.x15.1)	voltage
	39	v(x1.x15.2)	voltage
	40	v(x1.x16.1)	voltage
	41	i(v.x1.v22_inv)	current
	42	i(v.x1.v22)	current
	43	i(v.x1.v21_inv)	current
	44	i(v.x1.v21)	current
	45	i(v.x1.v12_inv)	current
	46	i(v.x1.v12)	current
	47	i(v.x1.v11_inv)	current
	48	i(v.x1.v11)	current
	49	i(h.x1.h2)	current
	50	i(v.x1.v2)	current
	51	i(h.x1.h1)	current
	52	i(v.x1.v1)	current
	53	i(l.x1.x16.l1)	current
	54	i(l.x1.x15.l1)	current
	55	i(l.x1.x14.l1)	current
	56	i(l.x1.x13.l1)	current
	57	i(l.x1.x12.l1)	current
	58	i(l.x1.x11.l1)	current
	59	i(l.x1.x10.l1)	current
	60	i(l.x1.x9.l1)	current
	61	i(l.x1.x8.l1)	current
	62	i(l.x1.x7.l1)	current
	63	i(l.x1.x6.l1)	current
	64	i(l.x1.x5.l1)	current
	65	i(l.x1.x4.l1)	current
	66	i(l.x1.x3.l1)	current
	67	i(l.x1.x2.l1)	current
	68	i(l.x1.x1.l1)	current
	69	i(e.x1.e2)	current
	70	i(e.x1.e1)	current
	71	i(vout)	current
	72	i(vin)	current
Values:
0		1.000000000000000e+06,6.951636964805516e-310
	1.000000000000000e+00,0.000000000000000e+00
	1.000000000000000e+00,0.000000000000000e+00
	1.002407084089804e+00,-3.969272174769951e-01
	1.000000000000000e+00,0.000000000000000e+00
	1.002407084089804e+00,-3.969272174769951e-01
	1.002407084089804e+00,-3.969272174769951e-01
	9.993745074584293e-01,-4.044210892309947e-01
	1.003126732172506e+00,-3.972158785554680e-01
	1.780309199346977e-03,4.438409600300199e-03
	1.003498836779124e+00,-3.973651607714353e-01
	1.788559858212938e-03,4.458716596425456e-03
	1.999923685099277e-01,-6.455258230773375e-01
	-3.425944279041276e-03,3.968980266075933e-01
	-3.425944279041276e-03,3.968980266075933e-01
	-3.425944279041276e-03,3.968980266075933e-01
	-4.497997589217057e-04,3.969013994077136e-01
	-3.427142303120257e-03,3.971834806635562e-01
	-1.760169234058476e-03,-7.387266292045801e-06
	-3.427751943190414e-03,3.973309287806361e-01
	-1.768591352535533e-03,-7.385084626133030e-06
	1.924981885372538e-01,1.576204666313847e-01
	0.000000000000000e+00,0.000000000000000e+00
	0.000000000000000e+00,0.000000000000000e+00
	0.000000000000000e+00,0.000000000000000e+00
	1.002407084089804e+00,-3.969272174769951e-01
	1.002407084089804e+00,-3.969272174769951e-01
	9.993745544179931e-01,-4.044209756449342e-01
	1.003126734327224e+00,-3.972158786701992e-01
	1.779945111064701e-03,4.437513430728778e-03
	1.003498452265456e+00,-3.973650065173679e-01
	1.788556304986808e-03,4.458707851530547e-03
	2.000023636062794e-01,-6.455325571782748e-01
	-3.425944279041276e-03,3.968980266075933e-01
	-3.425944279041276e-03,3.968980266075933e-01
	-4.497545105527565e-04,3.969013991196974e-01
	-3.427142043854414e-03,3.971834799126766e-01
	-1.760525345890849e-03,-7.387181281677567e-06
	-3.427752576286393e-03,3.973310813033902e-01
	-1.768594827562122e-03,-7.385083652195456e-06
	1.924972756802275e-01,1.576161246404503e-01
	1.934332488911090e-01,2.678374199501704e-01
	-5.776110203516830e-04,5.097327914350006e-01
	4.754655038958857e-02,-1.915970853593742e-02
	2.449833545800907e-01,-6.579531066283612e-01
	-4.907995945963845e-05,1.887186477827808e-02
	1.905056285559114e-01,1.746839108599054e-01
	4.764391461887411e-01,-7.605053554212213e-01
	1.283477353583566e+00,-5.193901840258536e-01
	-3.833121864672091e-01,-9.711259870233545e-01
	-6.851888558082552e-05,7.937960532151867e-03
	-2.052446404741987e+00,1.957008354611373e+00
	4.814168179607695e-05,-7.938544349539903e-03
	1.954201752413118e-01,1.600093850120759e-01
	-8.187939016491771e-05,-3.419020209310952e-07
	-1.083400212856037e-03,-4.545957711776100e-06
	-5.776110203516830e-04,5.097327914350006e-01
	1.994041511528209e-01,-6.436017519225072e-01
	5.405453049403075e-05,1.347530177565571e-04
	1.082691673397215e-03,2.699217415285250e-03
	6.883693032222020e-02,-2.785652125946647e-02
	1.919224212734335e-01,1.571490195726667e-01
	-5.345114097363157e-05,-2.231952558671806e-07
	-1.070662551130354e-03,-4.493470980557451e-06
	-3.098221235168106e-05,2.733857276537495e-02
	2.030290743753600e-01,-6.553275573526612e-01
	8.280369713947874e-05,2.064220646493052e-04
	1.095574891905984e-03,2.731328984800351e-03
	1.283477353583566e+00,-5.193901840258536e-01
	-3.833121864672091e-01,-9.711259870233545e-01
	-2.052446404741987e+00,1.957008354611373e+00
	6.851888558082552e-05,-7.937960532151867e-03
	-4.814168179607695e-05,7.938544349539903e-03
1		3.900000000000000e+06,6.951636964805516e-310
	1.000000000000000e+00,0.000000000000000e+00
	1.000000000000000e+00,0.000000000000000e+00
	1.000604151325538e+00,-7.980573292668680e-02
	1.000000000000000e+00,0.000000000000000e+00
	1.000604151325538e+00,-7.980573292668680e-02
	1.000604151325538e+00,-7.980573292668680e-02
	9.974172555779995e-01,-1.089745941260715e-01
	1.011643980317631e+00,-8.088069047329341e-02
	1.699941248513353e-03,1.745842032500364e-02
	1.017441985253648e+00,-8.144820984725644e-02
	1.719967604438330e-03,1.763222881403952e-02
	2.504792226288262e-02,-2.012344980196619e-01
	-3.874756200355621e-03,9.507678281314963e-02
	-3.874756200355621e-03,9.507678281314963e-02
	-3.874756200355621e-03,9.507678281314963e-02
	-1.093400683798548e-03,9.510875816518198e-02
	-3.899210950925732e-03,9.612799578939531e-02
	-1.662050876471132e-03,-3.866489525664605e-05
	-3.911756714093067e-03,9.667953795743434e-02
	-1.678959823404203e-03,-3.875974208039888e-05
	1.865393075452685e-02,4.647249068349357e-03
	0.000000000000000e+00,0.000000000000000e+00
	0.000000000000000e+00,0.000000000000000e+00
	0.000000000000000e+00,0.000000000000000e+00
	1.000604151325538e+00,-7.980573292668680e-02
	1.000604151325538e+00,-7.980573292668680e-02
	9.974173169490140e-01,-1.089741524321502e-01
	1.011644014135489e+00,-8.088065438428407e-02
	1.699535861056134e-03,1.745489646154575e-02
	1.017435961831376e+00,-8.144762002936970e-02
	1.719952351923550e-03,1.763209664010660e-02
	2.504938351725433e-02,-2.012388025498431e-01
	-3.874756200355621e-03,9.507678281314963e-02
	-3.874756200355621e-03,9.507678281314963e-02
	-1.093358416852739e-03,9.510875741527727e-02
	-3.899207169724146e-03,9.612799301737454e-02
	-1.662387126506652e-03,-3.866683993885256e-05
	-3.911769743033838e-03,9.668011154412860e-02
	-1.678972436089237e-03,-3.875981058531609e-05
	1.865354227417247e-02,4.647062567695022e-03
	1.688498785687893e-02,3.058088159786832e-02
	-1.404179070916359e-03,1.221463378933139e-01
	4.711122020563364e-02,-4.862065285410876e-03
	6.927514333378453e-02,-1.915043043940061e-01
	-7.847927272233552e-05,4.489047409342759e-03
	1.723457421467046e-02,8.698652772219921e-03
	2.988808976566615e-01,-2.155500914011266e-01
	1.280963692843731e+00,-1.399539638373170e-01
	-3.263690372791070e-02,-1.659149196727449e-01
	-7.749512400711243e-05,1.901535656262993e-03
	-1.696230954039811e+00,5.518704249178606e-01
	1.208302651075486e-05,-1.596114658533736e-03
	1.893677968796537e-02,4.717624070923830e-03
	-7.773020537450064e-05,-1.794435675245721e-06
	-1.023007462465638e-03,-2.379497842391193e-05
	-1.404179070916359e-03,1.221463378933139e-01
	2.497446013684380e-02,-2.006368918742204e-01
	5.198115183521384e-05,5.328849323049594e-04
	1.033780937382064e-03,1.061733361407882e-02
	6.870211578378660e-02,-7.506140820509036e-03
	1.859813634549037e-02,4.633349021285500e-03
	-5.074225771893766e-05,-1.171413868484032e-06
	-1.010979851868078e-03,-2.351879273519831e-05
	-7.531345115019617e-05,6.551092310592504e-03
	2.542825263758295e-02,-2.042900645146069e-01
	7.962812983510708e-05,8.163068895388649e-04
	1.046117691392796e-03,1.074364327692538e-02
	1.280963692843731e+00,-1.399539638373170e-01
	-3.263690372791070e-02,-1.659149196727449e-01
	-1.696230954039811e+00,5.518704249178606e-01
	7.749512400711243e-05,-1.901535656262993e-03
	-1.208302651075486e-05,1.596114658533736e-03
2		6.800000000000000e+06,6.951636964805516e-310
	1.000000000000000e+00,0.000000000000000e+00
	1.000000000000000e+00,0.000000000000000e+00
	1.001188896865376e+00,-1.764391859358153e-02
	1.000000000000000e+00,0.000000000000000e+00
	1.001188896865376e+00,-1.764391859358153e-02
	1.001188896865376e+00,-1.764391859358153e-02
	9.976952192442817e-01,-6.851661924205396e-02
	1.035551551528857e+00,-1.932172511773032e-02
	1.521739003864985e-03,3.116628236041325e-02
	1.054239295563192e+00,-2.027121945725888e-02
	1.577925498532997e-03,3.186143542596200e-02
	1.176090322109577e-02,-1.170550126738787e-01
	-2.714608798789944e-03,4.634354189544312e-02
	-2.714608798789944e-03,4.634354189544312e-02
	-2.714608798789944e-03,4.634354189544312e-02
	-3.506655373612555e-04,4.636142213715806e-02
	-2.758223846966102e-03,4.793792307232391e-02
	-1.445777471883097e-03,-3.954992382158369e-05
	-2.780192849528158e-03,4.880422125648717e-02
	-1.478372397460115e-03,-3.940279739814578e-05
	5.369677726188939e-03,9.564394046550819e-04
	0.000000000000000e+00,0.000000000000000e+00
	0.000000000000000e+00,0.000000000000000e+00
	0.000000000000000e+00,0.000000000000000e+00
	1.001188896865376e+00,-1.764391859358153e-02
	1.001188896865376e+00,-1.764391859358153e-02
	9.976953115619736e-01,-6.851585047152151e-02
	1.035551662262521e+00,-1.932151361199957e-02
	1.521235398248365e-03,3.115999662012489e-02
	1.054219644087536e+00,-2.027021194446273e-02
	1.577873029311815e-03,3.186079184110457e-02
	1.176148129343375e-02,-1.170576234990034e-01
	-2.714608798789944e-03,4.634354189544312e-02
	-2.714608798789944e-03,4.634354189544312e-02
	-3.506296743747435e-04,4.636142058035498e-02
	-2.758213679373511e-03,4.793791869928429e-02
	-1.446069814571588e-03,-3.954880767706321e-05
	-2.780215567581311e-03,4.880513322540318e-02
	-1.478402333060287e-03,-3.940264123666529e-05
	5.369559075520407e-03,9.564034766186060e-04
	3.842184521431569e-03,1.362559170247812e-02
	-4.503069101680912e-04,5.954107589373732e-02
	4.633926036652140e-02,-2.645654328351774e-03
	5.334636059691102e-02,-9.490468041505414e-02
	-4.109467273319606e-05,2.151424477839900e-03
	4.198997996649821e-03,2.800645477991108e-03
	2.867496657397122e-01,-1.049892666813778e-01
	1.281320676204953e+00,-8.799456908794751e-02
	-7.549780935180102e-03,-7.811873755204644e-02
	-5.429217597579888e-05,9.268708379088625e-04
	-1.667755962908098e+00,2.905341705127312e-01
	2.377793730751799e-05,-3.528783718716305e-04
	5.451091044269546e-03,9.709256109820647e-04
	-6.844455245649464e-05,-1.824196353549402e-06
	-8.898891166594369e-04,-2.433772780126991e-05
	-4.503069101680912e-04,5.954107589373732e-02
	1.172630238627493e-02,-1.167075009960153e-01
	4.768716843906601e-05,9.629107785633635e-04
	9.253256680342853e-04,1.895376923365283e-02
	6.872126405579097e-02,-4.719372535578006e-03
	5.353616875562252e-03,9.535786686491344e-04
	-4.468001684780328e-05,-1.190848567400436e-06
	-8.794266860602792e-04,-2.405713127833260e-05
	-2.415384607805864e-05,3.193375267747489e-03
	1.193948205418014e-02,-1.188323887118417e-01
	7.305210641356454e-05,1.475066454905648e-03
	9.364547716092838e-04,1.917925068333143e-02
	1.281320676204953e+00,-8.799456908794751e-02
	-7.549780935180102e-03,-7.811873755204644e-02
	-1.667755962908098e+00,2.905341705127312e-01
	5.429217597579888e-05,-9.268708379088625e-04
	-2.377793730751799e-05,3.528783718716305e-04
3		9.700000000000000e+06,6.951636964805516e-310
	1.000000000000000e+00,0.000000000000000e+00
	1.000000000000000e+00,0.000000000000000e+00
	1.002313458548988e+00,1.850169937663778e-02
	1.000000000000000e+00,0.000000000000000e+00
	1.002313458548988e+00,1.850169937663778e-02
	1.002313458548988e+00,1.850169937663778e-02
	9.983772510797793e-01,-5.411632014547166e-02
	1.074913557650191e+00,1.649573311617577e-02
	1.275437247721235e-03,4.616073181639763e-02
	1.116680069768429e+00,1.511371554548824e-02
	1.426445532263009e-03,4.815186545877972e-02
	8.371166861388668e-03,-8.243358189231434e-02
	-7.123738023202494e-04,2.326349820766891e-02
	-7.123738023202494e-04,2.326349820766891e-02
	-7.123738023202494e-04,2.326349820766891e-02
	9.745398046590031e-04,2.319261510762203e-02
	-6.863088843717013e-04,2.494948222422372e-02
	-1.071765878344005e-03,1.656924941445702e-05
	-6.660199020553437e-04,2.591843581414340e-02
	-1.118202132891760e-03,1.952325735176241e-05
	1.911377296803830e-03,2.176083595110443e-04
	0.000000000000000e+00,0.000000000000000e+00
	0.000000000000000e+00,0.000000000000000e+00
	0.000000000000000e+00,0.000000000000000e+00
	1.002313458548988e+00,1.850169937663778e-02
	1.002313458548988e+00,1.850169937663778e-02
	9.983773904955040e-01,-5.411522618833725e-02
	1.074913812088751e+00,1.649640171623588e-02
	1.274750879746498e-03,4.615143495762771e-02
	1.116635255512928e+00,1.511527257525708e-02
	1.426289515411263e-03,4.814986118293299e-02
	8.371512572723000e-03,-8.243544000241371e-02
	-7.123738023202494e-04,2.326349820766891e-02
	-7.123738023202494e-04,2.326349820766891e-02
	9.745652402311798e-04,2.319261217980305e-02
	-6.862932910094571e-04,2.494947650611081e-02
	-1.071981898732062e-03,1.658255984711962e-05
	-6.659964023409126e-04,2.591947661704414e-02
	-1.118248706209113e-03,1.952631367075771e-05
	1.911334258315706e-03,2.175998094524561e-04
	1.102737320086354e-03,6.644294843891415e-03
	1.251615291456169e-03,2.978582331355078e-02
	4.504847895799367e-02,-1.568350209421095e-03
	4.561197478894410e-02,-4.797337688674935e-02
	2.369641984230940e-05,1.046243595872132e-03
	1.100830673004170e-03,1.072420831336925e-03
	2.855871893040003e-01,-5.097266682544373e-02
	1.282196596501850e+00,-6.950054343754629e-02
	-3.478879704389002e-03,-3.854878258465125e-02
	-1.424747604640499e-05,4.652699641533782e-04
	-1.658444239552788e+00,1.700149373591605e-01
	4.626917097976627e-05,3.700339875327556e-04
	1.940356165482833e-03,2.209038686153357e-04
	-5.177077343560690e-05,9.039960032757467e-07
	-6.596811684504988e-04,1.020465221360928e-05
	1.251615291456169e-03,2.978582331355078e-02
	8.346473153263210e-03,-8.218887338226689e-02
	4.310594521915080e-05,1.455206152772396e-03
	7.753959122545589e-04,2.807264900099012e-02
	6.876824566024961e-02,-3.727457376245850e-03
	1.905660315856261e-03,2.169574870498946e-04
	-3.379479366815037e-05,5.900404180295692e-07
	-6.519257167542635e-04,1.007861886524510e-05
	6.712631248512212e-05,1.597507584214219e-03
	8.498275569075328e-03,-8.368526236145461e-02
	6.603914501217632e-05,2.229253030499057e-03
	7.848844601361573e-04,2.840660419470631e-02
	1.282196596501850e+00,-6.950054343754629e-02
	-3.478879704389002e-03,-3.854878258465125e-02
	-1.658444239552788e+00,1.700149373591605e-01
	1.424747604640499e-05,-4.652699641533782e-04
	-4.626917097976627e-05,-3.700339875327556e-04
4		1.260000000000000e+07,6.951636964805516e-310
	1.000000000000000e+00,0.000000000000000e+00
	1.000000000000000e+00,0.000000000000000e+00
	1.003943616249414e+00,4.711499363216406e-02
	1.000000000000000e+00,0.000000000000000e+00
	1.003943616249414e+00,4.711499363216406e-02
	1.003943616249414e+00,4.711499363216406e-02
	9.994730078853987e-01,-4.731709697393065e-02
	1.133113364741259e+00,4.503998124724512e-02
	1.015681060430069e-03,6.322625738390676e-02
	1.213707311467410e+00,4.274720541680215e-02
	1.415717581231268e-03,6.799005276393520e-02
	7.071932746382836e-03,-6.364780783189558e-02
	2.210690446904754e-03,7.669151812814174e-03
	2.210690446904754e-03,7.669151812814174e-03
	2.210690446904754e-03,7.669151812814174e-03
	2.909305253175946e-03,7.394279357000472e-03
	2.556294802149759e-03,8.635102065674497e-03
	-4.727183084309124e-04,1.691324224140863e-04
	2.779203465400466e-03,9.234569550479266e-03
	-5.075717432547093e-04,1.843349138813704e-04
	4.966553079702561e-04,-1.094394373507294e-04
	0.000000000000000e+00,0.000000000000000e+00
	0.000000000000000e+00,0.000000000000000e+00
	0.000000000000000e+00,0.000000000000000e+00
	1.003943616249414e+00,4.711499363216406e-02
	1.003943616249414e+00,4.711499363216406e-02
	9.994732097072563e-01,-4.731568027952982e-02
	1.133113877521502e+00,4.504161133990991e-02
	1.014675204051892e-03,6.321355290017175e-02
	1.213618172398342e+00,4.275012623727027e-02
	1.415266544766819e-03,6.798497130830358e-02
	7.072186593091213e-03,-6.364924842814106e-02
	2.210690446904754e-03,7.669151812814174e-03
	2.210690446904754e-03,7.669151812814174e-03
	2.909315389849562e-03,7.394274219994297e-03
	2.556305748930912e-03,8.635094045326345e-03
	-4.728112652062287e-04,1.691724439883236e-04
	2.779453166915261e-03,9.235232336045262e-03
	-5.076087990173691e-04,1.843512877835456e-04
	4.966438273978011e-04,-1.094376655076863e-04
	8.381440625192639e-04,2.127778588993220e-03
	3.736377493558771e-03,9.496323387000381e-03
	4.305687898588573e-02,-6.667289786887292e-04
	3.794795510794144e-02,-1.570442558951005e-02
	1.150183166524102e-04,3.220466943114464e-04
	2.150359747606912e-04,2.452125622571917e-04
	2.876474896846007e-01,-1.373027310460488e-02
	1.283603855777078e+00,-6.076843260471468e-02
	-4.904575847491136e-03,-1.219136123256224e-02
	4.421380893809509e-05,1.533830362562835e-04
	-1.652256179555506e+00,9.086986027751835e-02
	7.887232498827682e-05,9.422998726432812e-04
	5.041849212651641e-04,-1.110993789181653e-04
	-2.350040736191530e-05,8.534781841830789e-06
	-2.909607785884479e-04,1.041061193774312e-04
	3.736377493558771e-03,9.496323387000381e-03
	7.051033492613372e-03,-6.345887181270295e-02
	4.277280418178250e-05,2.054671521648439e-03
	6.171990292286419e-04,3.845106624098044e-02
	6.884372569963192e-02,-3.259104579110746e-03
	4.951697985745324e-04,-1.091121010475866e-04
	-1.534005510320084e-05,5.571050346994994e-06
	-2.875415501404570e-04,1.028786024416598e-04
	2.003929779016356e-04,5.093180436010794e-04
	7.179313742022263e-03,-6.461424306542514e-02
	6.554248061255871e-05,3.147687627959961e-03
	6.250344987261855e-04,3.890846608240404e-02
	1.283603855777078e+00,-6.076843260471468e-02
	-4.904575847491136e-03,-1.219136123256224e-02
	-1.652256179555506e+00,9.086986027751835e-02
	-4.421380893809509e-05,-1.533830362562835e-04
	-7.887232498827682e-05,-9.422998726432812e-04
5		1.550000000000000e+07,6.951636964805516e-310
	1.000000000000000e+00,0.000000000000000e+00
	1.000000000000000e+00,0.000000000000000e+00
	1.006147930890051e+00,7.314517270100612e-02
	1.000000000000000e+00,0.000000000000000e+00
	1.006147930890051e+00,7.314517270100612e-02
	1.006147930890051e+00,7.314517270100612e-02
	1.001125343823623e+00,-4.321333519036990e-02
	1.215949141872065e+00,7.098828006005799e-02
	8.582306819761810e-04,8.348020340102282e-02
	1.362372412519032e+00,6.579721490371632e-02
	1.936067761977760e-03,9.385937616074544e-02
	6.489256560171609e-03,-5.188415834820618e-02
	6.245811201742673e-03,-5.252368485916949e-03
	6.245811201742673e-03,-5.252368485916949e-03
	6.245811201742673e-03,-5.252368485916949e-03
	5.560239385009291e-03,-5.898612560678621e-03
	7.449990963070097e-03,-6.448502955352571e-03
	4.758461009902290e-04,4.790466782462772e-04
	8.268629960602618e-03,-7.303695679216441e-03
	5.406808283204888e-04,5.331666862581034e-04
	-2.551010175684816e-04,-3.374172483315150e-04
	0.000000000000000e+00,0.000000000000000e+00
	0.000000000000000e+00,0.000000000000000e+00
	0.000000000000000e+00,0.000000000000000e+00
	1.006147930890051e+00,7.314517270100612e-02
	1.006147930890051e+00,7.314517270100612e-02
	1.001125622049032e+00,-4.321159839153886e-02
	1.215950134073218e+00,7.099176073033860e-02
	8.566701455826444e-04,8.346349253773651e-02
	1.362203125946664e+00,6.580487751533277e-02
	1.934726402531213e-03,9.384764089310030e-02
	6.489466162557780e-03,-5.188533502078244e-02
	6.245811201742673e-03,-5.252368485916949e-03
	6.245811201742673e-03,-5.252368485916949e-03
	5.560227973424629e-03,-5.898621060097674e-03
	7.449965573735326e-03,-6.448517536802915e-03
	4.759494265953541e-04,4.791347553699083e-04
	8.269568169413544e-03,-7.304695174517186e-03
	5.407548122161263e-04,5.332271538944597e-04
	-2.550955942548245e-04,-3.374092440467931e-04
	1.792417354322140e-03,-1.543589386747470e-03
	7.140893260126720e-03,-7.575484957346054e-03
	4.003141696953638e-02,4.574242559963299e-04
	2.843712986198918e-02,1.174168831251185e-02
	2.346629023523442e-04,-2.231950382442970e-04
	2.311079109780576e-04,-9.236250608420961e-05
	2.918702947676147e-01,1.777795452672208e-02
	1.285725918868938e+00,-5.549805070644415e-02
	-9.399081427779262e-03,9.434631888422031e-03
	1.249162240348535e-04,-1.050473697183390e-04
	-1.646064760468078e+00,2.552098361121389e-02
	1.229586178010122e-04,1.462903454020122e-03
	-2.589689934904613e-04,-3.425325026895202e-04
	2.503494501000573e-05,2.468644230992859e-05
	2.928919548279112e-04,2.948521571507143e-04
	7.140893260126720e-03,-7.575484957346054e-03
	6.470055994574057e-03,-5.173014458702137e-02
	5.847214707843359e-05,2.836304427378516e-03
	5.210888963398145e-04,5.076854777234582e-02
	6.895754387994434e-02,-2.976415373435656e-03
	-2.543380035578081e-04,-3.364080242587388e-04
	1.634069234527589e-05,1.611359665915448e-05
	2.894441003590191e-04,2.913909235074638e-04
	3.829893501177359e-04,-4.062964981869830e-04
	6.587790137254525e-03,-5.267197304910159e-02
	8.963276675822955e-05,4.345341488923402e-03
	5.281419581391791e-04,5.137243286216785e-02
	1.285725918868938e+00,-5.549805070644415e-02
	-9.399081427779262e-03,9.434631888422031e-03
	-1.646064760468078e+00,2.552098361121389e-02
	-1.249162240348535e-04,1.050473697183390e-04
	-1.229586178010122e-04,-1.462903454020122e-03
6		1.840000000000000e+07,6.951636964805516e-310
	1.000000000000000e+00,0.000000000000000e+00
	1.000000000000000e+00,0.000000000000000e+00
	1.009052546228079e+00,9.886540350062356e-02
	1.000000000000000e+00,0.000000000000000e+00
	1.009052546228079e+00,9.886540350062356e-02
	1.009052546228079e+00,9.886540350062356e-02
	1.003588347601966e+00,-3.960323522170921e-02
	1.333180949480099e+00,9.572097469605631e-02
	1.053977037158365e-03,1.086441816148701e-01
	1.596717755036877e+00,8.040388713937624e-02
	4.097652683112166e-03,1.304360851258012e-01
	6.239525501773519e-03,-4.384467717227374e-02
	1.166935290378588e-02,-1.760814299373754e-02
	1.166935290378588e-02,-1.760814299373754e-02
	1.166935290378588e-02,-1.760814299373754e-02
	9.067325303636808e-03,-1.885917495837379e-02
	1.477550904006179e-02,-2.360489447414288e-02
	2.009631527997906e-03,1.040935133420311e-03
	1.706316839044058e-02,-2.859901161705880e-02
	2.440348914446053e-03,1.197611600929363e-03
	-7.461409705134280e-04,-5.428387636016642e-04
	0.000000000000000e+00,0.000000000000000e+00
	0.000000000000000e+00,0.000000000000000e+00
	0.000000000000000e+00,0.000000000000000e+00
	1.009052546228079e+00,9.886540350062356e-02
	1.009052546228079e+00,9.886540350062356e-02
	1.003588714174116e+00,-3.960118049591984e-02
	1.333182892460999e+00,9.572791285532956e-02
	1.051435954980624e-03,1.086225709201014e-01
	1.596392674090017e+00,8.042965393119106e-02
	4.093367229711171e-03,1.304096056973302e-01
	6.239711836520500e-03,-4.384567256497612e-02
	1.166935290378588e-02,-1.760814299373754e-02
	1.166935290378588e-02,-1.760814299373754e-02
	9.067283905006177e-03,-1.885918826766402e-02
	1.477536236653590e-02,-2.360492643541820e-02
	2.010054110674236e-03,1.041099307505418e-03
	1.706586729792985e-02,-2.860524675534290e-02
	2.440878140963304e-03,1.197791191899870e-03
	-7.461244676084340e-04,-5.428256175754439e-04
	3.809834315643110e-03,-5.017462577923298e-03
	1.164493737206147e-02,-2.422049078485476e-02
	3.532219959586591e-02,2.278539173528826e-03
	1.581774363566166e-02,3.908971037419782e-02
	3.867277211092056e-04,-6.279189901230976e-04
	8.739076543786439e-04,9.041283425415773e-05
	2.984288331521585e-01,4.872206619460109e-02
	1.288889106990809e+00,-5.086166913039972e-02
	-1.671540706319243e-02,2.977545951864700e-02
	2.333870580757177e-04,-3.521628598747508e-04
	-1.638457883374496e+00,-3.922864661192802e-02
	1.810509245615897e-04,1.977308070012471e-03
	-7.574537026388026e-04,-5.510679407654731e-04
	1.130036176371899e-04,5.545329592129020e-05
	1.236956375799529e-03,6.406764969264130e-04
	1.164493737206147e-02,-2.422049078485476e-02
	6.221048690449152e-03,-4.371452897804198e-02
	1.237115337799555e-04,3.941296110291651e-03
	6.395595833215440e-04,6.607212343071860e-02
	6.912720169266537e-02,-2.727729748995718e-03
	-7.439092427850727e-04,-5.412151182469234e-04
	7.375329165999917e-05,3.619474132402571e-05
	1.222403605838142e-03,6.331722222751297e-04
	6.245574668436979e-04,-1.299020178976015e-03
	6.334267135316447e-03,-4.451041951698934e-02
	1.897061427366744e-04,6.038707644713020e-03
	6.486012536359159e-04,6.685795791684311e-02
	1.288889106990809e+00,-5.086166913039972e-02
	-1.671540706319243e-02,2.977545951864700e-02
	-1.638457883374496e+00,-3.922864661192802e-02
	-2.333870580757177e-04,3.521628598747508e-04
	-1.810509245615897e-04,-1.977308070012471e-03
7		2.130000000000000e+07,6.951636964805516e-310
	1.000000000000000e+00,0.000000000000000e+00
	1.000000000000000e+00,0.000000000000000e+00
	1.012854701048802e+00,1.261179085548161e-01
	1.000000000000000e+00,0.000000000000000e+00
	1.012854701048802e+00,1.261179085548161e-01
	1.012854701048802e+00,1.261179085548161e-01
	1.007301629873877e+00,-3.476767481645196e-02
	1.501833101387196e+00,1.186348086611707e-01
	2.166751697225187e-03,1.415850107439263e-01
	1.992244113347098e+00,6.579937486173429e-02
	1.156529647817466e-02,1.877852167038695e-01
	6.199332286665288e-03,-3.802033560767325e-02
	1.880140437682877e-02,-3.078244192139225e-02
	1.880140437682877e-02,-3.078244192139225e-02
	1.880140437682877e-02,-3.078244192139225e-02
	1.353953992761221e-02,-3.294493585142005e-02
	2.567694044676772e-02,-4.663826081793936e-02
	4.590154257688535e-03,1.990422025581668e-03
	3.110543126476080e-02,-6.317741124447963e-02
	6.213491391060812e-03,2.359964116066037e-03
	-1.134208356813946e-03,-7.529647769743883e-04
	0.000000000000000e+00,0.000000000000000e+00
	0.000000000000000e+00,0.000000000000000e+00
	0.000000000000000e+00,0.000000000000000e+00
	1.012854701048802e+00,1.261179085548161e-01
	1.012854701048802e+00,1.261179085548161e-01
	1.007302093174193e+00,-3.476530267979488e-02
	1.501837106444466e+00,1.186482546118062e-01
	2.162415203760525e-03,1.415571585867745e-01
	1.991578012235895e+00,6.590190953197111e-02
	1.154968192131985e-02,1.877232482500760e-01
	6.199506799663496e-03,-3.802119924554791e-02
	1.880140437682877e-02,-3.078244192139225e-02
	1.880140437682877e-02,-3.078244192139225e-02
	1.353945679334825e-02,-3.294495545271717e-02
	2.567644915044426e-02,-4.663832751659556e-02
	4.591114312611192e-03,1.990687702081900e-03
	3.111182292365267e-02,-6.320035443385798e-02
	6.215714249917102e-03,2.360363084899851e-03
	-1.134183084014228e-03,-7.529465885921006e-04
	7.168464118566313e-03,-8.711251052360886e-03
	1.738846252770611e-02,-4.231056918383602e-02
	2.754159515259539e-02,5.874588723133053e-03
	-1.479807633373187e-03,7.025634877600045e-02
	5.899930575713960e-04,-8.014532831987502e-04
	2.240989226750425e-03,1.070085610909742e-03
	3.081637008215141e-01,8.333799503479550e-02
	1.293658003603534e+00,-4.465145241412910e-02
	-2.738790893059424e-02,5.075318790848592e-02
	3.760280875365755e-04,-6.156488384278451e-04
	-1.627883491944270e+00,-1.148174801197999e-01
	2.570940209760313e-04,2.522358171096323e-03
	-1.151404643263520e-03,-7.643794114491455e-04
	2.877645486072732e-04,1.092760687453634e-04
	2.825301115453042e-03,1.225038585896553e-03
	1.738846252770611e-02,-4.231056918383602e-02
	6.180963907939676e-03,-3.790747681510259e-02
	3.490595358232546e-04,5.673454069453455e-03
	1.315337715182802e-03,8.610532760752707e-02
	6.938297927911510e-02,-2.394634431725780e-03
	-1.130815909086686e-03,-7.507126390572166e-04
	1.877868529696811e-04,7.132386714416211e-05
	2.792064633630498e-03,1.210718993662815e-03
	9.326036594305143e-04,-2.269247544525419e-03
	6.293463622060446e-03,-3.859764051688429e-02
	5.354303925080861e-04,8.693760032586548e-03
	1.333385659830883e-03,8.712923738087767e-02
	1.293658003603534e+00,-4.465145241412910e-02
	-2.738790893059424e-02,5.075318790848592e-02
	-1.627883491944270e+00,-1.148174801197999e-01
	-3.760280875365755e-04,6.156488384278451e-04
	-2.570940209760313e-04,-2.522358171096323e-03
8		2.420000000000000e+07,6.951636964805516e-310
	1.000000000000000e+00,0.000000000000000e+00
	1.000000000000000e+00,0.000000000000000e+00
	1.017894087344552e+00,1.578185401972279e-01
	1.000000000000000e+00,0.000000000000000e+00
	1.017894087344552e+00,1.578185401972279e-01
	1.017894087344552e+00,1.578185401972279e-01
	1.013169378547576e+00,-2.603644531248279e-02
	1.753682740105925e+00,1.362328994124584e-01
	5.501191783163077e-03,1.875188478801844e-01
	2.743923307725169e+00,-7.769503041548889e-02
	3.974533567065198e-02,2.912851712234928e-01
	6.364185966890292e-03,-3.362622346201185e-02
	2.773797214460798e-02,-4.566253042341124e-02
	2.773797214460798e-02,-4.566253042341124e-02